# t (s)	mx ()	my ()	mz ()	B_demag.region4x (T)	B_demag.region4y (T)	B_demag.region4z (T)	Counter (No unit)
0	0.002841491	-0.8773134	-4.733291e-05	-0.011804132	-0.007947721	0.0014714748	0
0	0.0027856922	-0.8773842	-4.6214365e-05	-0.012114871	-0.008609798	0.0015798934	1e-08
0	0.0028418032	-0.87741244	-4.734085e-05	-0.012747203	-0.009191015	0.001729532	2e-08
0	0.00058752537	-0.87738824	-4.6216635e-05	-0.013168682	-0.009991859	0.0018812703	3e-08
0	0.0026227173	-0.8780844	-0.00018589618	-0.013954404	-0.010808982	0.0020877584	4e-08
0	0.0027855225	-0.87733465	-4.6211753e-05	-0.014544923	-0.0116197085	0.002293133	5e-08
0	-0.006201116	-0.87803435	-0.0001858872	-0.015526328	-0.012631767	0.0025794387	6e-08
0	-0.0060383454	-0.87735873	-4.6220346e-05	-0.015959151	-0.013672606	0.0028111138	7e-08
0	0.002785597	-0.8773594	-4.6216646e-05	-0.016568994	-0.014827361	0.0030995095	8e-08
0	-0.008236825	-0.87731403	-4.6215166e-05	-0.017195694	-0.01635485	0.0034454863	9e-08
0	0.0027856168	-0.8773594	-4.621305e-05	-0.018186467	-0.01807114	0.003925515	1e-07
0	0.0028416507	-0.87736297	-4.7335594e-05	-0.019317396	-0.01995217	0.0045324853	1.1e-07
0	-0.008237061	-0.87733877	-4.6215304e-05	-0.01960583	-0.02172026	0.0049433275	1.2e-07
0	-0.006038181	-0.8773341	-4.6215166e-05	-0.020165592	-0.023823308	0.00557486	1.3e-07
0	-0.008237294	-0.8773635	-4.6216614e-05	-0.020581368	-0.026415657	0.0063154837	1.4e-07
0	-0.0060385214	-0.87738353	-4.6218047e-05	-0.021094663	-0.028943054	0.0071329735	1.5e-07
0	0.0026226426	-0.8780596	-0.00018589037	-0.020741045	-0.032141216	0.00790839	1.6e-07
0	0.0005875249	-0.87733877	-4.6212008e-05	-0.022078753	-0.037047997	0.009794148	1.7e-07
0	-0.006038009	-0.8773094	-4.6213954e-05	-0.020131983	-0.038812447	0.010238198	1.8e-07
0	-0.006038009	-0.8773094	-4.6214052e-05	-0.020896103	-0.045463797	0.013479206	1.9e-07
0	0.0005874838	-0.8772892	-4.6209207e-05	-0.017712368	-0.047379132	0.013910569	2e-07
0	-0.008236352	-0.8772645	-4.6212175e-05	-0.014795186	-0.050751656	0.014905863	2.1e-07
0	0.00058751006	-0.87731403	-4.621047e-05	-0.012218953	-0.052879054	0.016820021	2.2e-07
0	-0.003762202	-0.8792779	-0.000120589866	-0.0091882665	-0.056372505	0.018457204	2.3e-07
0	-0.008236595	-0.87728924	-4.6212837e-05	-0.0056319297	-0.060562532	0.020866798	2.4e-07
0	0.0027854596	-0.8773099	-4.6210374e-05	-0.0030162532	-0.057073314	0.020599011	2.5e-07
0	-0.012585696	-0.8793022	-0.000120594945	-0.0007452764	-0.058677543	0.021787625	2.6e-07
0	-0.008180798	-0.87731767	-4.7336587e-05	0.0025662151	-0.058908872	0.021748243	2.7e-07
0	-0.00603783	-0.87728465	-4.6213667e-05	0.00609981	-0.06160523	0.026573574	2.8e-07
0	-0.008236362	-0.87726456	-4.6211426e-05	0.008162386	-0.059482127	0.02586824	2.9e-07
0	0.002785302	-0.87726045	-4.6207708e-05	0.014009724	-0.06225738	0.02715303	3e-07
0	0.0026986178	-0.8779995	-0.00019162313	0.014777323	-0.053909093	0.03062906	3.1e-07
0	-0.005981439	-0.8772478	-8.215716e-05	0.015208451	-0.054383364	0.027195586	3.2e-07
0	-0.008308032	-0.8779288	-0.00018970057	0.0186983	-0.05227153	0.024971683	3.3e-07
0	-0.006088163	-0.87725353	-3.4927678e-05	0.024221588	-0.044966098	0.025584182	3.4e-07
0	-0.008079743	-0.8771832	-8.380312e-05	0.024653215	-0.038076125	0.019047529	3.5e-07
0	0.00268016	-0.87717915	1.423925e-05	0.025429666	-0.03070249	0.018113013	3.6e-07
0	-0.0080832355	-0.8771581	-0.00010257318	0.016419146	-0.025952486	0.010147409	3.8e-07
0	0.0028814115	-0.8771503	-0.000101447185	0.014347951	-0.02467149	0.00903909	3.9e-07
0	-0.0059407516	-0.87714994	-0.000101450816	0.012900794	-0.023343936	0.008363322	4e-07
0	0.0007397683	-0.8771333	-0.000102566984	0.011450024	-0.022335635	0.0077242027	4.1e-07
0	-0.008139299	-0.87715447	-0.0001014501	0.009151562	-0.022353515	0.0072820336	4.2e-07
0	-0.0039769155	-0.8791669	-5.7271693e-05	0.0068645473	-0.021583898	0.007454458	4.3e-07
0	-0.005940452	-0.8771004	-0.0001014445	0.0066557196	-0.021836873	0.006648575	4.4e-07
0	0.00068378245	-0.87712973	-0.00010144428	0.005697255	-0.02159485	0.0064125424	4.5e-07
0	0.0006838016	-0.8771544	-0.0001014472	0.004635032	-0.021891104	0.0063169184	4.6e-07
0	-0.012486573	-0.87911797	-0.0001758487	0.0029726392	-0.021814829	0.005840867	4.7e-07
0	-0.008139299	-0.8771544	-0.0001014501	0.0029948452	-0.021419056	0.006071716	4.8e-07
0	0.0028813991	-0.8771503	-0.00010144763	0.002238052	-0.022083716	0.0060717934	4.9e-07
0	0.0006838007	-0.87715447	-0.00010144698	0.0009066184	-0.022401117	0.0060412707	5.1e-07
0	-0.0036647404	-0.87914324	-0.00017585185	-0.0009844117	-0.023152085	0.005668094	5.2e-07
0	0.0024218385	-0.8771037	-9.897213e-05	-0.0006042048	-0.022743268	0.006080621	5.3e-07
0	0.0029374727	-0.87715393	-0.000102569546	-0.0014709481	-0.023002613	0.006213211	5.4e-07
0	0.0028813581	-0.87712556	-0.000101444086	-0.0022531468	-0.02359958	0.006389255	5.5e-07
0	0.0005209141	-0.87780505	-0.00024108608	-0.0026895897	-0.024351358	0.006510635	5.6e-07
0	0.0006837806	-0.8771544	-0.000101447346	-0.003206069	-0.025023278	0.0067094634	5.7e-07
0	0.0006837901	-0.87715447	-0.00010144713	-0.0040170997	-0.025814254	0.006946731	5.8e-07
0	-0.008139048	-0.87712973	-0.00010144752	-0.004684779	-0.026731575	0.007252481	5.9e-07
0	-0.005940787	-0.8771498	-0.000101450205	-0.005817603	-0.028034016	0.0077145915	6e-07
0	0.0007398197	-0.87715805	-0.00010256955	-0.0069354223	-0.0295778	0.008352872	6.1e-07
0	0.002881441	-0.87715036	-0.000101446836	-0.0068022907	-0.030872436	0.008687659	6.2e-07
0	-0.008139069	-0.87712973	-0.00010144731	-0.0077049066	-0.032796536	0.009555249	6.3e-07
0	0.00068380125	-0.87715447	-0.00010144725	-0.007914162	-0.034923375	0.010290399	6.4e-07
0	-0.0081392545	-0.8771546	-0.000101450896	-0.008357315	-0.037947886	0.011394171	6.5e-07
0	-0.008139527	-0.8771792	-0.000101452904	-0.007683389	-0.03963019	0.012338166	6.6e-07
0	-0.008139069	-0.87712973	-0.000101447324	-0.007900108	-0.04449181	0.014438377	6.7e-07
0	0.0006837463	-0.87712973	-0.00010144477	-0.0066619483	-0.04835384	0.016746031	6.8e-07
0	-0.0059407875	-0.8771499	-0.000101450285	-0.0034594003	-0.047631115	0.016839987	6.9e-07
0	-0.005940588	-0.87712514	-0.00010144755	-0.0014404069	-0.04981641	0.018317763	7e-07
0	-0.005940583	-0.87712514	-0.00010144781	0.0007997183	-0.05168883	0.019323662	7.1e-07
0	0.002881441	-0.8771503	-0.00010144682	0.0033313304	-0.054659814	0.023263305	7.2e-07
0	0.0029375441	-0.8771786	-0.00010257242	0.005022681	-0.052223228	0.0224344	7.3e-07
0	0.0006838218	-0.8771792	-0.00010144993	0.008263393	-0.055468373	0.025479436	7.4e-07
0	0.00067834026	-0.8771914	-0.00011019602	0.008187454	-0.05082464	0.025890416	7.5e-07
0	-0.006065513	-0.8778794	-0.00024596232	0.009819429	-0.050891593	0.025711432	7.6e-07
0	0.002846743	-0.8772079	-0.00011052938	0.011226147	-0.04970504	0.027978702	7.7e-07
0	0.0028189628	-0.8772772	-9.9182034e-05	0.0120065585	-0.04877838	0.029189754	7.8e-07
0	0.002774099	-0.8772922	-0.00010750298	0.010715571	-0.04721812	0.028836554	7.9e-07
0	-0.008639797	-0.8775653	5.92258e-06	0.0127704935	-0.04495607	0.03234198	8.1e-07
0	-0.008470335	-0.8776589	-0.00010290804	0.012718442	-0.04365717	0.031472273	8.2e-07
0	0.0024483826	-0.8778082	-0.00010395168	0.013034705	-0.043310724	0.03160175	8.3e-07
0	-0.009235173	-0.87801194	-0.00011887735	0.012560507	-0.04395493	0.03284109	8.4e-07
0	-0.0034301663	-0.8792469	-4.2948894e-05	0.015548222	-0.048133694	0.021407152	8.5e-07
0	-0.0010755607	-0.87932307	-0.00032080262	0.013083918	-0.04721432	0.01962551	8.6e-07
0	-0.01202532	-0.87947935	-0.0004082535	0.013041877	-0.047883824	0.021799186	8.7e-07
0	-6.723961e-05	-0.87898767	-0.00015088005	0.012936035	-0.04448627	0.023413539	8.8e-07
0	-0.0031914946	-0.87961614	-0.00043735196	0.014183445	-0.046782445	0.01903185	8.9e-07
0	-0.0122221075	-0.8797556	-0.00035009283	0.013150542	-0.045021992	0.018377025	9e-07
0	-0.00926247	-0.8797746	-0.00016572303	0.015451969	-0.045247894	0.024781432	9.1e-07
0	-0.009255179	-0.8812843	-0.00039941113	0.013575863	-0.040671695	0.020518893	9.2e-07
0	-0.009343612	-0.8812986	-0.0004363879	0.012459209	-0.04065259	0.018273069	9.3e-07
0	-0.012139389	-0.87920445	-0.00025744078	0.01942919	-0.047310647	0.027041638	9.4e-07
0	-0.001016436	-0.8798072	-0.00025728694	0.02153179	-0.045265935	0.026898883	9.5e-07
0	-0.0029920195	-0.8812775	-0.00049921137	0.016191699	-0.0426198	0.01879251	9.6e-07
0	-0.009801553	-0.88107425	-0.00036585494	0.020110121	-0.042773392	0.020310191	9.7e-07
0	-0.012043803	-0.88127476	-0.00048055596	0.022959862	-0.041937355	0.018863285	9.8e-07
