# t (s)	mx ()	my ()	mz ()	B_demag.region4x (T)	B_demag.region4y (T)	B_demag.region4z (T)	Counter (No unit)
0	-0.0015320744	0.88491535	1.3508135e-11	0.015035455	0.0037902414	-0.0015338771	0
0	-0.0103909625	0.8849139	-3.3770337e-11	0.016039288	0.0042587295	-0.0017148405	1e-08
0	-0.0015321579	0.8849153	-8.442584e-12	0.017141826	0.004807659	-0.0019253183	2e-08
0	-0.010390884	0.884914	3.0393302e-11	0.01836641	0.005445645	-0.002171428	3e-08
0	-0.010390963	0.8849139	1.3508135e-10	0.019720899	0.006197685	-0.002460721	4e-08
0	-0.010390882	0.8849139	1.3170431e-10	0.021224972	0.0070865955	-0.0028027105	5e-08
0	-0.0015321614	0.88491535	4.7278473e-11	0.022895157	0.00814491	-0.003209328	6e-08
0	-0.010390962	0.8849139	2.701627e-11	0.024759958	0.009406758	-0.0036957958	7e-08
0	-0.0015320762	0.88491535	3.7147372e-11	0.026831085	0.01092811	-0.004281277	8e-08
0	-0.0015320781	0.88491535	3.7147372e-11	0.029138299	0.012767216	-0.004990476	9e-08
0	-0.0015321599	0.88491535	5.403254e-11	0.031698816	0.015006141	-0.0058549196	1e-07
0	-0.0015320784	0.88491535	6.7540674e-12	0.034526244	0.017747728	-0.006915123	1.1e-07
0	-0.010390926	0.8849139	1.1313063e-10	0.037623484	0.021121884	-0.008223101	1.2e-07
0	-0.010390974	0.8849139	-4.7278473e-11	0.04095986	0.025298024	-0.009845032	1.3e-07
0	-0.0015321609	0.88491535	2.0262202e-11	0.04446276	0.030484868	-0.011864249	1.4e-07
0	-0.0015321374	0.88491535	6.247512e-11	0.04797994	0.03693487	-0.014382559	1.5e-07
0	-0.01039089	0.884914	1.4521245e-10	0.05120179	0.04493998	-0.017514952	1.6e-07
0	-0.001532158	0.88491535	9.962249e-11	0.053544246	0.0547854	-0.021366982	1.7e-07
0	-0.010390961	0.8849139	5.403254e-11	0.053974967	0.06655409	-0.025955345	1.8e-07
0	-0.01039096	0.8849139	1.0806508e-10	0.050814353	0.07951492	-0.030962147	1.9e-07
0	-0.0015321613	0.8849153	-3.0393302e-11	0.042932417	0.09083831	-0.035358526	2e-07
0	-0.010390962	0.8849139	5.403254e-11	0.032680463	0.097598076	-0.038146406	2.1e-07
0	-0.001532079	0.88491523	8.104881e-11	0.022998122	0.10033549	-0.039464436	2.2e-07
0	-0.01039088	0.884914	5.403254e-11	0.014844278	0.10061009	-0.03985252	2.3e-07
0	-0.01039088	0.88491404	4.7278473e-11	0.008188682	0.099550515	-0.03972585	2.4e-07
0	-0.0015321608	0.8849154	-1.0131101e-11	0.0027221167	0.09782449	-0.039338954	2.5e-07
0	-0.0015320779	0.88491523	2.701627e-11	-0.0019019814	0.09578552	-0.03882946	2.6e-07
0	-0.010390961	0.8849139	-3.7147372e-11	-0.006000017	0.093593284	-0.038257223	2.7e-07
0	-0.010390962	0.8849139	1.0806508e-10	-0.009843707	0.09128983	-0.03763053	2.8e-07
0	-0.0103909625	0.8849139	1.5534354e-10	-0.013661463	0.08882883	-0.03691678	2.9e-07
0	-0.0015321599	0.88491535	-4.0524403e-11	-0.017665377	0.086089365	-0.036043543	3e-07
0	-0.01039096	0.8849139	-8.442584e-12	-0.02204515	0.08283299	-0.034884427	3.1e-07
0	-0.01039096	0.8849139	-4.0524403e-11	-0.02695561	0.07864704	-0.033241365	3.2e-07
0	-0.010390876	0.884914	4.0524403e-11	-0.032311972	0.07280674	-0.030818406	3.3e-07
0	-0.0015320798	0.8849153	9.4556946e-11	-0.037217133	0.06435244	-0.027296113	3.4e-07
0	-0.0015320778	0.88491523	2.701627e-11	-0.039337587	0.05353392	-0.022856807	3.5e-07
0	-0.010390879	0.8849139	1.2832728e-10	-0.037780773	0.043195914	-0.018545464	3.6e-07
0	-0.010390877	0.884914	8.7802876e-11	-0.03430541	0.03493313	-0.0150135225	3.7e-07
0	-0.001532159	0.88491535	-6.7540674e-12	-0.030232724	0.028600559	-0.0122676045	3.8e-07
0	-0.0015320795	0.88491535	-3.5458855e-11	-0.026129298	0.023759581	-0.010154891	3.9e-07
0	-0.0103909355	0.884914	8.104881e-11	-0.022218233	0.020041173	-0.008528523	4e-07
0	-0.0015320758	0.88491535	-4.7278473e-11	-0.018584177	0.017176032	-0.0072735455	4.1e-07
0	-0.0015321607	0.88491535	1.3508135e-11	-0.015223898	0.014960858	-0.0063031134	4.2e-07
0	-0.010390964	0.8849139	4.896699e-11	-0.0121156555	0.013251495	-0.005553749	4.3e-07
0	-0.001532066	0.88491523	-4.0524403e-11	-0.009236196	0.011946115	-0.004979066	4.4e-07
0	-0.0015321596	0.88491535	4.7278473e-11	-0.006537951	0.010964473	-0.0045447126	4.5e-07
0	-0.0015320816	0.88491535	-4.7278473e-11	-0.0039867824	0.010252147	-0.004226053	4.6e-07
0	-0.001532076	0.88491535	-1.6885169e-11	-0.0015463582	0.009769594	-0.004005499	4.7e-07
0	-0.0015321452	0.8849153	8.442584e-12	0.00081805827	0.00948984	-0.0038710341	4.8e-07
0	-0.01039096	0.8849139	8.104881e-11	0.0031432486	0.00939546	-0.003815207	4.9e-07
0	-0.001532078	0.88491535	2.701627e-11	0.005451223	0.009480588	-0.0038344034	5e-07
0	-0.008180771	0.884917	-1.3508135e-10	0.007787482	0.009742814	-0.0039287717	5.1e-07
0	-0.0103909625	0.884914	2.701627e-11	0.010174641	0.010192476	-0.004101894	5.2e-07
0	-0.0103909625	0.8849139	1.1819618e-10	0.012648227	0.010845832	-0.0043613203	5.3e-07
0	-0.0015320792	0.88491523	-4.221292e-11	0.015239041	0.011730347	-0.004719011	5.4e-07
0	-0.0015320763	0.88491535	-5.0655504e-11	0.01798965	0.012884798	-0.005192733	5.5e-07
0	-0.0103909625	0.8849139	0	0.020936506	0.014364611	-0.0058071944	5.6e-07
0	-0.010390962	0.8849139	2.701627e-11	0.024108248	0.016245732	-0.006595985	5.7e-07
0	-0.010390878	0.884914	8.104881e-11	0.027540052	0.018631633	-0.0076055126	5.8e-07
0	-0.010390961	0.8849139	1.3508135e-10	0.0312513	0.021664182	-0.008898751	5.9e-07
0	-0.0103908805	0.8849139	5.403254e-11	0.035231616	0.025538165	-0.01056096	6e-07
0	-0.0015320778	0.88491535	-5.403254e-11	0.03939832	0.030520385	-0.012705462	6.1e-07
0	-0.0103909625	0.8849139	-2.0262202e-11	0.043532442	0.036972743	-0.015477337	6.2e-07
0	-0.010390962	0.8849139	2.0262202e-11	0.047039237	0.045307975	-0.01902056	6.3e-07
0	-0.0015320715	0.8849153	-7.4294744e-11	0.04859226	0.055628125	-0.023313135	6.4e-07
0	-0.010390961	0.8849139	9.286843e-11	0.04648807	0.06628571	-0.027686015	6.5e-07
0	-0.0015320772	0.88491535	6.7540674e-11	0.041691255	0.07442363	-0.031089356	6.6e-07
0	-0.0015320773	0.88491523	-1.6209761e-10	0.036580633	0.07982948	-0.033352703	6.7e-07
0	-0.0015320827	0.88491523	1.3508135e-11	0.032070715	0.083479844	-0.034798205	6.8e-07
0	-0.0103909625	0.884914	1.0637656e-10	0.02827357	0.08609961	-0.035720583	6.9e-07
0	-0.010390964	0.8849139	4.7278473e-11	0.025081342	0.0880999	-0.036315966	7e-07
0	-0.01039088	0.8849139	1.604091e-10	0.022371477	0.08971176	-0.036710475	7.1e-07
0	-0.0015320651	0.88491535	-2.5327752e-11	0.020037632	0.091066815	-0.03698201	7.2e-07
0	-0.010390962	0.8849139	9.4556946e-11	0.018007731	0.09225192	-0.03718207	7.3e-07
0	-0.001532077	0.88491523	0	0.016214333	0.09332184	-0.037341326	7.4e-07
0	-0.0015320764	0.88491523	2.701627e-11	0.014618539	0.09432441	-0.03748409	7.5e-07
0	-0.0015321618	0.8849154	-3.3770337e-11	0.013181689	0.09529607	-0.037626725	7.6e-07
0	-0.010390961	0.8849139	1.2157321e-10	0.011874423	0.09627052	-0.03778311	7.7e-07
0	-0.01039088	0.884914	1.3508135e-11	0.010663658	0.09727715	-0.03796404	7.8e-07
0	-0.0015321592	0.8849154	2.0262202e-11	0.009520238	0.09834598	-0.03818032	7.9e-07
0	-0.0015321603	0.88491535	0	0.008416302	0.09950733	-0.03844284	8e-07
0	-0.0015320783	0.88491535	5.403254e-11	0.0073123276	0.10078985	-0.03876124	8.1e-07
0	-0.0015320728	0.88491535	-2.701627e-11	0.006161957	0.10222161	-0.039145015	8.2e-07
0	-0.0015320749	0.88491535	-2.8704787e-11	0.0049059344	0.10382774	-0.039602492	8.3e-07
0	-0.010390961	0.8849139	-5.403254e-11	0.0034697573	0.10562657	-0.040139467	8.4e-07
0	-0.0015320759	0.88491523	2.701627e-11	0.0017484933	0.107624166	-0.040756464	8.5e-07
0	-0.010390877	0.884914	4.7278473e-11	-0.00037532905	0.10980417	-0.04144628	8.6e-07
0	-0.0015321587	0.88491535	2.701627e-11	-0.0030669037	0.11211678	-0.042187855	8.7e-07
0	-0.010390878	0.8849139	-6.922919e-11	-0.0065071764	0.11445731	-0.042939972	8.8e-07
0	-0.0103908805	0.8849139	8.104881e-11	-0.010923889	0.11664516	-0.04363149	8.9e-07
0	-0.010390962	0.8849139	7.4294744e-11	-0.016558751	0.118383944	-0.044147253	9e-07
0	-0.001532076	0.8849153	4.0524403e-11	-0.023654472	0.11920648	-0.044307403	9.1e-07
0	-0.0015321583	0.88491535	2.701627e-11	-0.032372	0.118384376	-0.04383665	9.2e-07
0	-0.010390877	0.884914	1.3508135e-10	-0.04258588	0.11480504	-0.04232685	9.3e-07
0	-0.0103909625	0.8849139	3.8835886e-11	-0.053237583	0.10698857	-0.039271485	9.4e-07
0	-0.0015320847	0.8849153	-6.416364e-11	-0.061340358	0.0945188	-0.03457919	9.5e-07
0	-0.0015320773	0.8849153	-5.0655504e-11	-0.06458841	0.080402315	-0.029281791	9.6e-07
0	-0.0015321588	0.8849154	0	-0.064153425	0.06748189	-0.024413187	9.7e-07
0	-0.010390882	0.8849139	8.2737324e-11	-0.061707806	0.05650003	-0.02028953	9.8e-07
