# t (s)	mx ()	my ()	mz ()	B_demag.region4x (T)	B_demag.region4y (T)	B_demag.region4z (T)	Counter (No unit)
0	0.29244545	0.8201343	-0.00060139125	0.04724616	0.070840664	-0.03023731	0
0	0.29244545	0.8201343	-0.0006013912	0.043526866	0.07992647	-0.034672625	1e-08
0	0.29244545	0.8201343	-0.00060139113	0.03808721	0.08776022	-0.039012913	2e-08
0	0.29244548	0.8201343	-0.00060139113	0.031850893	0.09434985	-0.043304782	3e-08
0	0.29244545	0.8201343	-0.0006013912	0.023057466	0.099418856	-0.04725422	4e-08
0	0.29244545	0.8201343	-0.0006013912	0.01438149	0.10010887	-0.049968656	5e-08
0	0.29244545	0.8201343	-0.0006013912	0.008047898	0.09917478	-0.052277878	6e-08
0	0.29244545	0.8201343	-0.0006013912	0.0013375022	0.098031476	-0.054364465	7e-08
0	0.29244545	0.8201343	-0.00060139125	-0.004223645	0.09449093	-0.055134967	8e-08
0	0.29244545	0.8201343	-0.0006013912	-0.0075502843	0.090806104	-0.05518024	9e-08
0	0.29244545	0.8201343	-0.00060139125	-0.011444647	0.0885473	-0.05396416	1e-07
0	0.29244545	0.8201343	-0.00060139113	-0.016091738	0.08554518	-0.050678257	1.1e-07
0	0.29244545	0.8201343	-0.0006013912	-0.02166417	0.08231171	-0.04525042	1.2e-07
0	0.29244545	0.8201343	-0.00060139125	-0.032043036	0.07798487	-0.037334654	1.3e-07
0	0.29244545	0.8201343	-0.0006013912	-0.044972707	0.06887269	-0.03286454	1.4e-07
0	0.29244545	0.8201343	-0.0006013912	-0.04868747	0.052035905	-0.025089107	1.5e-07
0	0.29244545	0.8201342	-0.0006013912	-0.044337764	0.040462136	-0.019059118	1.6e-07
0	0.29244545	0.8201343	-0.0006013912	-0.0390901	0.03219307	-0.015060418	1.7e-07
0	0.29244545	0.8201343	-0.0006013912	-0.033765756	0.026183642	-0.0122494185	1.8e-07
0	0.29244545	0.8201343	-0.00060139125	-0.028782297	0.021727184	-0.010200911	1.9e-07
0	0.29244545	0.8201343	-0.0006013912	-0.024234407	0.018360674	-0.008670678	2e-07
0	0.29244545	0.8201342	-0.0006013912	-0.020113055	0.015789824	-0.007511218	2.1e-07
0	0.29244545	0.8201343	-0.0006013912	-0.016375532	0.013819803	-0.006628089	2.2e-07
0	0.29244545	0.8201343	-0.0006013912	-0.012969162	0.012315649	-0.0059576062	2.3e-07
0	0.29244545	0.82013434	-0.0006013912	-0.009840784	0.011181077	-0.0054553435	2.4e-07
0	0.29244545	0.8201343	-0.0006013912	-0.006939945	0.010346621	-0.0050898655	2.5e-07
0	0.29244545	0.8201343	-0.0006013912	-0.0042199804	0.009762318	-0.0048389765	2.6e-07
0	0.29244542	0.8201342	-0.0006013912	-0.0016381115	0.009392857	-0.0046873116	2.7e-07
0	0.29244545	0.8201343	-0.00060139125	0.00084495137	0.009214353	-0.004624795	2.8e-07
0	0.29244545	0.8201343	-0.0006013912	0.0032656193	0.009212201	-0.004645654	2.9e-07
0	0.29244548	0.8201343	-0.0006013912	0.0056580864	0.009379733	-0.004747826	3e-07
0	0.29244545	0.8201343	-0.0006013912	0.008055077	0.009717449	-0.0049326466	3.1e-07
0	0.29244545	0.8201343	-0.0006013912	0.010488481	0.010232845	-0.0052048434	3.2e-07
0	0.29244545	0.8201343	-0.0006013912	0.0129899895	0.01094065	-0.0055727125	3.3e-07
0	0.29244548	0.8201343	-0.0006013912	0.015591576	0.0118636	-0.0060485885	3.4e-07
0	0.29244548	0.8201343	-0.0006013912	0.018325865	0.013033732	-0.0066495384	3.5e-07
0	0.29244545	0.8201343	-0.0006013912	0.021226233	0.014494366	-0.0073984684	3.6e-07
0	0.29244548	0.8201343	-0.0006013912	0.024326455	0.016302833	-0.008325546	3.7e-07
0	0.29244545	0.8201343	-0.0006013912	0.027659606	0.01853438	-0.009470277	3.8e-07
0	0.29244548	0.8201343	-0.0006013912	0.03125577	0.021287324	-0.010884187	3.9e-07
0	0.29244545	0.8201342	-0.0006013912	0.035137307	0.024690194	-0.012634479	4e-07
0	0.29244545	0.8201343	-0.0006013912	0.03931019	0.028911227	-0.014808825	4.1e-07
0	0.29244545	0.8201343	-0.0006013912	0.04374746	0.034171	-0.017521588	4.2e-07
0	0.29244545	0.8201343	-0.0006013912	0.048357762	0.040758185	-0.020921351	4.3e-07
0	0.29244545	0.8201343	-0.0006013912	0.052922662	0.04904565	-0.0251985	4.4e-07
0	0.29244545	0.8201343	-0.0006013912	0.05697399	0.059499625	-0.03058949	4.5e-07
0	0.29244545	0.8201343	-0.0006013912	0.059519336	0.072617	-0.03735232	4.6e-07
0	0.29244545	0.8201343	-0.00060139125	0.058466528	0.088620834	-0.04560606	4.7e-07
0	0.29244545	0.8201343	-0.0006013912	0.049465004	0.10408132	-0.054011036	4.8e-07
0	0.29244545	0.8201343	-0.0006013912	0.037227966	0.112119265	-0.06038544	4.9e-07
0	0.29244545	0.8201343	-0.00060139125	0.02682624	0.11575551	-0.06563455	5e-07
0	0.29244545	0.8201343	-0.00060139125	0.016356077	0.11740234	-0.070408665	5.1e-07
0	0.29244545	0.8201343	-0.0006013912	0.0076514157	0.11520515	-0.07387702	5.2e-07
0	0.29244545	0.8201343	-0.0006013912	0.0020608045	0.11209323	-0.07716394	5.3e-07
0	0.29244545	0.8201342	-0.0006013912	-0.0036203065	0.10963574	-0.08004279	5.4e-07
0	0.29244545	0.8201343	-0.0006013912	-0.008425452	0.105663106	-0.08226013	5.5e-07
0	0.29244545	0.8201343	-0.0006013912	-0.011566585	0.10117597	-0.08532407	5.6e-07
0	0.29244545	0.8201343	-0.0006013912	-0.011036796	0.09697341	-0.08755245	5.7e-07
0	0.29244545	0.8201343	-0.0006013912	-0.011012806	0.09371338	-0.08764266	5.8e-07
0	0.29244545	0.8201343	-0.0006013912	-0.009751328	0.09073568	-0.08740765	5.9e-07
0	0.29244545	0.8201343	-0.0006013912	-0.00899189	0.08794885	-0.08561497	6e-07
0	0.29244545	0.8201343	-0.0006013912	-0.009161779	0.085259154	-0.08459901	6.1e-07
0	0.29244545	0.8201343	-0.0006013912	-0.007140298	0.08255403	-0.08365428	6.2e-07
0	0.29244545	0.8201343	-0.0006013912	-0.005683717	0.07986622	-0.08078409	6.3e-07
0	0.29244545	0.8201343	-0.0006013912	-0.0053583784	0.07716069	-0.078944	6.4e-07
0	0.29244545	0.8201343	-0.00060139125	-0.0022933085	0.07434272	-0.07694635	6.5e-07
0	0.29244542	0.8201343	-0.00060139125	-0.00021467468	0.07139714	-0.07248616	6.6e-07
0	0.29244545	0.8201343	-0.00060139125	0.00065811037	0.06825277	-0.0690898	6.7e-07
0	0.29244545	0.8201343	-0.00060139125	0.00447744	0.06468213	-0.06487831	6.8e-07
0	0.29244545	0.8201343	-0.00060139125	0.0068061757	0.06065983	-0.057698045	6.9e-07
0	0.29244545	0.8201343	-0.0006013912	0.008507237	0.05598569	-0.04963559	7e-07
0	0.29244545	0.8201343	-0.00060139125	0.008904632	0.05095542	-0.039275542	7.1e-07
0	0.29244545	0.8201343	-0.00060139125	0.006044012	0.04642278	-0.027370693	7.2e-07
0	0.29244545	0.8201343	-0.00060139125	-0.00026030076	0.0431999	-0.016190859	7.3e-07
0	0.29244545	0.82013434	-0.00060139125	-0.008934215	0.041499797	-0.0057051633	7.4e-07
0	0.29244545	0.8201343	-0.00060139125	-0.020858455	0.041627683	0.0047107036	7.5e-07
0	0.29244545	0.8201343	-0.00060139125	-0.038503066	0.043881834	0.013345036	7.6e-07
0	0.29244545	0.8201343	-0.00060139125	-0.060731456	0.045553688	0.014910471	7.7e-07
0	0.29244545	0.8201343	-0.00060139125	-0.07790459	0.04088152	0.009440312	7.8e-07
0	0.29244545	0.8201343	-0.00060139125	-0.07969377	0.030061364	0.006834561	7.9e-07
0	0.29244545	0.8201343	-0.0006013912	-0.074029475	0.023152707	0.00515388	8e-07
0	0.29244545	0.8201343	-0.0006013912	-0.06750259	0.018335775	0.0037201091	8.1e-07
0	0.29244545	0.8201343	-0.00060139125	-0.06106068	0.014887478	0.0025929941	8.2e-07
0	0.29244545	0.8201343	-0.0006013912	-0.055136535	0.012332648	0.0017317693	8.3e-07
0	0.29244545	0.8201343	-0.00060139125	-0.049834132	0.01037602	0.0010875027	8.4e-07
0	0.29244545	0.8201343	-0.00060139125	-0.04514342	0.008838279	0.0006120794	8.5e-07
0	0.29244545	0.8201343	-0.0006013912	-0.04101376	0.0076059257	0.00026460196	8.6e-07
0	0.29244545	0.8201343	-0.00060139125	-0.03738258	0.006602697	1.2924857e-05	8.7e-07
0	0.29244545	0.8201343	-0.00060139125	-0.034187313	0.0057750284	-0.00016738511	8.8e-07
0	0.29244545	0.8201343	-0.00060139125	-0.031370223	0.005084245	-0.00029464395	8.9e-07
0	0.29244545	0.8201343	-0.00060139125	-0.0288799	0.0045018005	-0.0003825412	9e-07
0	0.29244545	0.8201343	-0.00060139125	-0.02667162	0.0040062545	-0.00044127536	9.1e-07
0	0.29244548	0.8201343	-0.00060139125	-0.024706924	0.0035812438	-0.00047845475	9.2e-07
0	0.29244545	0.8201343	-0.0006013912	-0.02295292	0.0032141046	-0.0004997531	9.3e-07
0	0.29244545	0.8201343	-0.0006013912	-0.021381633	0.002894895	-0.0005094076	9.4e-07
0	0.29244545	0.8201343	-0.0006013912	-0.019969223	0.0026157321	-0.0005105874	9.5e-07
0	0.29244545	0.8201343	-0.0006013912	-0.01869541	0.002370277	-0.0005056567	9.6e-07
0	0.29244545	0.8201343	-0.00060139125	-0.017542899	0.0021534136	-0.00049639307	9.7e-07
0	0.29244545	0.8201343	-0.00060139125	-0.01649689	0.001960942	-0.00048411766	9.8e-07
